ITEM: TIMESTEP
0
ITEM: NUMBER OF ATOMS
32
ITEM: BOX BOUNDS xy xz yz pp pp pp
0.0000000000000000e+00 7.0990000000000002e+00 0.0000000000000000e+00
0.0000000000000000e+00 7.0990000000000002e+00 0.0000000000000000e+00
0.0000000000000000e+00 7.0990000000000002e+00 0.0000000000000000e+00
ITEM: ATOMS id type x y z c_spin[1] c_spin[2] c_spin[3] c_spin[4] c_spin[5] c_spin[6] c_spin[7] c_spin[8] c_spin[9] c_spin[10]
1 1 7.07827872 0.02983663 7.04550992 1.27479131 0.80809978 0.37202900 0.45669373 0.12366440 0.03724589 0.10055995 0.09531007 -0.01786105 0.44254703
2 1 3.50085721 0.01220635 7.07911962 1.38447691 0.75697831 0.10551989 0.64486386 0.13208637 0.01727439 0.12454250 0.29316629 -0.17743776 0.30116447
3 1 0.03084733 3.58539692 7.05397106 1.28413331 0.70121120 0.43521120 0.56470706 0.12499889 0.05792633 0.11421815 -0.36302707 -0.25591427 0.38914522
4 1 3.53394872 3.50913291 7.08771224 1.33018942 0.79961435 0.15264729 0.58078886 0.13621261 0.02791260 0.11322269 -0.03643655 0.32031166 0.11781479
5 1 7.08847976 0.03514509 3.50841879 1.36504818 -0.70078035 0.22509073 -0.67693505 -0.11904923 -0.00124298 -0.12470444 -0.01636260 -0.08053422 0.34604586
6 1 3.51790839 7.08218784 3.50451519 1.26820130 -0.62050000 -0.33373199 -0.70964971 -0.13083283 -0.05022090 -0.14557973 0.15339327 0.06212276 0.30153208
7 1 7.05363980 3.52774198 3.55163191 1.35873693 -0.66034046 -0.21009939 -0.72097762 -0.11182342 -0.02941268 -0.12831676 0.26461541 0.25681366 -0.08359782
8 1 3.53358390 3.53607119 3.48131958 1.28039921 -0.55047587 -0.39029179 -0.73800314 -0.11382713 -0.03933416 -0.13612738 0.00842919 0.04963561 0.69899562
9 1 7.05221892 1.78560448 1.78891561 1.26854257 0.68360260 0.22497448 0.69431547 0.12836702 0.04122719 0.14236134 0.24212850 0.07735059 -0.20796071
10 1 3.50630771 1.77035381 1.82606190 1.25436196 0.70666894 0.13071979 0.69536418 0.12819502 0.02462873 0.13852483 0.24795298 -0.05413278 -0.23076617
11 1 0.00777042 5.37838637 1.79526281 1.37981499 0.55039213 0.23271942 0.80181680 0.10233051 0.03367626 0.12317036 -0.22084114 -0.36950608 -0.23168717
12 1 3.51259239 5.26593102 1.82052157 1.26742565 0.71236437 0.11846056 0.69173991 0.12255750 0.01162451 0.12214268 0.34010496 0.50136965 -0.40985326
13 1 0.03566900 1.82259672 5.35215132 1.32977835 -0.67864604 -0.12508089 -0.72373636 -0.11721122 -0.01471500 -0.11623919 -0.29066931 -0.19959039 -0.13798604
14 1 3.54618136 1.75741522 5.39353819 1.36211297 -0.80690719 0.15270382 -0.57059822 -0.13468997 -0.00368839 -0.11563695 -0.04343875 0.03467458 -0.71134201
15 1 7.07956913 5.34502688 5.38089957 1.35563710 -0.68270404 -0.12854460 -0.71929930 -0.11267962 -0.02372065 -0.11396943 0.19207421 -0.10945041 -0.56144923
16 1 3.54838033 5.35145221 5.39963948 1.30975161 -0.55951001 -0.28758848 -0.77732967 -0.12509514 -0.05143864 -0.14716551 -0.07309869 -0.15938883 -0.49697481
17 1 1.74087280 7.05291405 1.78827245 1.39647347 0.73603177 0.12459234 0.66538258 0.12288707 0.02270145 0.11680416 0.21019890 0.54219391 -0.15517567
18 1 5.32887173 0.00280571 1.82255812 1.30293214 0.76145086 0.01414492 0.64806829 0.13447976 0.01804631 0.13497265 -0.19159652 0.13116066 -0.37470018
19 1 1.79631366 3.60343395 1.79825961 1.38940026 0.86960448 0.24944560 0.42610438 0.13765351 0.03166558 0.10220997 -0.43529842 -0.47831347 -0.14390370
20 1 5.30836674 3.56466262 1.84135485 1.27606659 0.46303952 0.45500697 0.76063333 0.10781417 0.05504781 0.13963424 0.11939234 -0.22244045 -0.63294502
21 1 1.77765011 7.08105255 5.35202412 1.26563079 -0.70167271 -0.15466584 -0.69550980 -0.11927386 -0.02455548 -0.12568608 -0.04970837 0.15502252 -0.26650147
22 1 5.37263526 7.07439977 5.38825861 1.36964867 -0.80766618 -0.23261415 -0.54181731 -0.13222176 -0.02677017 -0.11190330 -0.46997917 0.23121545 -0.59440332
23 1 1.74496219 3.54277112 5.33058153 1.26186743 -0.57272169 0.07644203 -0.81617797 -0.10930733 -0.01112232 -0.14305012 0.37805076 0.20755793 -0.13157185
24 1 5.28864195 3.59298654 5.36352890 1.36659463 -0.64404540 0.00566374 -0.76496630 -0.12208259 -0.01457428 -0.13136892 0.09644672 -0.23293018 -0.28490002
25 1 1.77415492 1.77314846 7.04561362 1.35323296 0.65367090 0.08532155 0.75195385 0.11989882 0.02110818 0.12714212 -0.12754078 0.06828315 0.46680935
26 1 5.29358618 1.77375383 7.02025943 1.39531653 0.41797651 0.14848954 0.89624020 0.10416077 0.02639384 0.15139582 0.16914037 0.09078155 0.60987997
27 1 1.71766531 5.32751562 7.07655842 1.25780051 0.90318632 0.00031804 0.42924860 0.13519166 0.01072345 0.09679396 0.36244953 -0.00765797 0.07381170
28 1 5.33790341 5.32436174 7.03562396 1.31040554 0.68601591 0.13242460 0.71543406 0.11701043 0.02323593 0.13016184 -0.25903745 -0.00857701 0.72789912
29 1 1.73853699 1.80195250 3.54418156 1.28077154 -0.70201323 0.16634474 -0.69246434 -0.13162627 -0.00129026 -0.12953963 0.16333565 -0.18469548 -0.06947321
30 1 5.35170326 1.78914469 3.54641448 1.33479695 -0.73999169 0.05819604 -0.67009366 -0.13437816 -0.00965126 -0.12122899 -0.42029612 -0.14448833 0.11970616
31 1 1.75087446 5.36007594 3.49431254 1.40010324 -0.49566301 -0.46903645 -0.73097400 -0.10311315 -0.05613209 -0.13093620 0.04369233 -0.25798720 0.57834328
32 1 5.35610368 5.30847559 3.47361387 1.39460161 -0.75263713 -0.08578069 -0.65282389 -0.13136185 -0.03097033 -0.11942303 -0.38255056 0.23241222 0.55149701
