32
Lattice="7.099 0.0 0.0 0.0 7.099 0.0 0.0 0.0 7.099" Properties=species:S:1:pos:R:3:force:R:3:force_mag:R:3:spin:R:3 Config_type=Fe32 type_map=Fe energy=-267.56171561 pbc="T T T"
Fe      -0.02072128       0.02983663      -0.05349008       0.19678712       0.02388512       0.23882690      -0.04164932      -0.03285564       0.02444969       1.03015858       0.47425934       0.58218919
Fe       3.50085721       0.01220635      -0.01988038       0.39949544      -0.18465639       0.20728307      -0.02581270      -0.00901560      -0.01867842       1.04801899       0.14608985       0.89279912
Fe       0.03084733       3.58539692      -0.04502894      -0.41334343      -0.28707709       0.28315407       0.00269994      -0.03285115       0.02280507       0.90044866       0.55886920       0.72515914
Fe       3.53394872       3.50913291      -0.01128776       0.00099825       0.37644738      -0.10827356      -0.02344220      -0.01023850       0.00350611       1.06363855       0.20304981       0.77255919
Fe      -0.01052024       0.03514509       3.50841879       0.01604871      -0.11399791       0.19953372       0.04017186      -0.05809091       0.02794915      -0.95659894       0.30725969      -0.92404895
Fe       3.51790839      -0.01681216       3.50451519       0.22782642       0.05068822       0.19499634      -0.05289351       0.00928609      -0.04449493      -0.78691890      -0.42323934      -0.89997869
Fe      -0.04536020       3.52774198       3.55163191       0.36511156       0.39801285      -0.43205089       0.02786530       0.02977986       0.02044659      -0.89722896      -0.28546980      -0.97961892
Fe       3.53358390       3.53607119       3.48131958       0.07670147       0.08793028       0.70208245      -0.01498140       0.02359829      -0.01019001      -0.70482887      -0.49972929      -0.94493864
Fe      -0.04678108       1.78560448       1.78891561       0.22843014       0.06195959      -0.08556139       0.04059828       0.01023090       0.04650419       0.86717900       0.28538971       0.88076873
Fe       3.50630771       1.77035381       1.82606190       0.33150796      -0.08599400      -0.03650828       0.02946484       0.00491757       0.03641991       0.88641864       0.16396993       0.87223838
Fe       0.00777042       5.37838637       1.79526281      -0.30448011      -0.45389241      -0.03782339      -0.01863504      -0.02322264      -0.08320270       0.75943931       0.32110974       1.10635884
Fe       3.51259239       5.26593102       1.82052157       0.46255986       0.57362365      -0.26325962       0.00223665       0.00004238      -0.00357353       0.90286887       0.15013995       0.87672890
Fe       0.03566900       1.82259672       5.35215132      -0.33997693      -0.29402379       0.11671674       0.02420839       0.02479548       0.04985796      -0.90244882      -0.16632985      -0.96240894
Fe       3.54618136       1.75741522       5.39353819      -0.07808011       0.02605390      -0.76359891       0.04719681      -0.04438439       0.00755683      -1.09909874       0.20799986      -0.77721924
Fe      -0.01943087       5.34502688       5.38089957       0.22469352      -0.09846153      -0.48308285       0.04837129      -0.00561202       0.06505719      -0.92549892      -0.17425983      -0.97510882
Fe       3.54838033       5.35145221       5.39963948      -0.15012045      -0.24001590      -0.45308452      -0.02504994       0.00666802       0.01197500      -0.73281914      -0.37666948      -1.01810878
Fe       1.74087280      -0.04608595       1.78827245       0.17142495       0.67416550       0.03574831      -0.05277977      -0.01320456      -0.05913729       1.02784884       0.17398989       0.92918912
Fe       5.32887173       0.00280571       1.82255812      -0.29564254       0.16271496      -0.24908975      -0.00562523       0.01904190       0.02901712       0.99211880       0.01842988       0.84438901
Fe       1.79631366       3.60343395       1.79825961      -0.53642143      -0.56405273       0.02506636      -0.09041986      -0.02103761      -0.00107092       1.20822869       0.34657978       0.59202953
Fe       5.30836674       3.56466262       1.84135485       0.07153699      -0.29155287      -0.62755126       0.03583325      -0.03224626      -0.00449969       0.59086926       0.58061919       0.97061877
Fe       1.77765011      -0.01794745       5.35202412      -0.11234971       0.11224062      -0.02401982      -0.00547498      -0.00306826      -0.00653694      -0.88805859      -0.19574985      -0.88025862
Fe       5.37263526      -0.02460023       5.38825861      -0.61008727       0.26356455      -0.58243130       0.05779749       0.02891817       0.00866291      -1.10621891      -0.31859966      -0.74209936
Fe       1.74496219       3.54277112       5.33058153       0.42746900       0.28127152       0.16136642      -0.02556621      -0.03384905      -0.01857609      -0.72269885       0.09645971      -1.02990840
Fe       5.28864195       3.59298654       5.36352890       0.03710020      -0.20987451      -0.10187332       0.01659074      -0.01685769       0.04364234      -0.88014899       0.00774004      -1.04539884
Fe       1.77415492       1.77314846      -0.05338638      -0.12720554       0.03980794       0.34996289      -0.03274064       0.00470731      -0.06236913       0.88456900       0.11545993       1.01756874
Fe       5.29358618       1.77375383      -0.07874057       0.31522683       0.15144486       0.59812086      -0.00030083       0.00023192      -0.08014805       0.58320953       0.20718991       1.25053876
Fe       1.71766531       5.32751562      -0.02244158       0.38098365      -0.00284468      -0.26633881      -0.02261897       0.00949276       0.03212457       1.13602822       0.00040003       0.53990911
Fe       5.33790341       5.32436174      -0.06337604      -0.25792790      -0.01758650       0.74756401      -0.01642605       0.00207192      -0.00815465       0.89895905       0.17352993       0.93750876
Fe       1.73853699       1.80195250       3.54418156       0.24699711      -0.22038937      -0.39417310      -0.02875660      -0.03947326      -0.02146498      -0.89911856       0.21304961      -0.88688862
Fe       5.35170326       1.78914469       3.54641448      -0.57658263      -0.19252862      -0.12007675      -0.01609767      -0.02032549       0.00353056      -0.98773866       0.07767990      -0.89443898
Fe       1.75087446       5.36007594       3.49431254       0.07833706      -0.29140666       0.60001498       0.00973039       0.06835267       0.04681484      -0.69397939      -0.65669945      -1.02343906
Fe       5.35610368       5.30847559       3.47361387      -0.45701818       0.26454401       0.56836039       0.05688130      -0.01973476       0.03659123      -1.04962895      -0.11962989      -0.91042924
