ITEM: TIMESTEP
0
ITEM: NUMBER OF ATOMS
32
ITEM: BOX BOUNDS xy xz yz pp pp pp
0.0000000000000000e+00 7.0990000000000002e+00 0.0000000000000000e+00
0.0000000000000000e+00 7.0990000000000002e+00 0.0000000000000000e+00
0.0000000000000000e+00 7.0990000000000002e+00 0.0000000000000000e+00
ITEM: ATOMS id type x y z c_spin[1] c_spin[2] c_spin[3] c_spin[4] c_spin[5] c_spin[6] c_spin[7] c_spin[8] c_spin[9] c_spin[10]
1 1 7.07827872 0.02983663 7.04550992 1.27479131 0.80809978 0.37202900 0.45669373 0.00000000 0.00000000 0.00000000 -0.07064890 0.15601476 0.39990159
2 1 3.50085721 0.01220635 7.07911962 1.38447691 0.75697831 0.10551989 0.64486386 0.00000000 0.00000000 0.00000000 0.32310172 -0.02217023 0.14391144
3 1 0.03084733 3.58539692 7.05397106 1.28413331 0.70121120 0.43521120 0.56470706 0.00000000 0.00000000 0.00000000 -0.31190222 -0.36030383 0.40600933
4 1 3.53394872 3.50913291 7.08771224 1.33018942 0.79961435 0.15264729 0.58078886 0.00000000 0.00000000 0.00000000 -0.06569662 0.05810141 0.01011683
5 1 7.08847976 0.03514509 3.50841879 1.36504818 -0.70078035 0.22509073 -0.67693505 0.00000000 0.00000000 0.00000000 0.02310830 0.08075985 0.08639522
6 1 3.51790839 7.08218784 3.50451519 1.26820130 -0.62050000 -0.33373199 -0.70964971 0.00000000 0.00000000 0.00000000 0.13791376 -0.03567374 0.29899298
7 1 7.05363980 3.52774198 3.55163191 1.35873693 -0.66034046 -0.21009939 -0.72097762 0.00000000 0.00000000 0.00000000 0.24019443 0.10268122 -0.12791447
8 1 3.53358390 3.53607119 3.48131958 1.28039921 -0.55047587 -0.39029179 -0.73800314 0.00000000 0.00000000 0.00000000 -0.04620454 0.10987631 0.46499709
9 1 7.05221892 1.78560448 1.78891561 1.26854257 0.68360260 0.22497448 0.69431547 0.00000000 0.00000000 0.00000000 0.15109704 0.12338631 -0.26423810
10 1 3.50630771 1.77035381 1.82606190 1.25436196 0.70666894 0.13071979 0.69536418 0.00000000 0.00000000 0.00000000 0.14357275 -0.07820007 -0.07402028
11 1 0.00777042 5.37838637 1.79526281 1.37981499 0.55039213 0.23271942 0.80181680 0.00000000 0.00000000 0.00000000 -0.20403140 -0.23134726 -0.14608536
12 1 3.51259239 5.26593102 1.82052157 1.26742565 0.71236437 0.11846056 0.69173991 0.00000000 0.00000000 0.00000000 0.19624321 0.34669134 -0.11802935
13 1 0.03566900 1.82259672 5.35215132 1.32977835 -0.67864604 -0.12508089 -0.72373636 0.00000000 0.00000000 0.00000000 -0.15140634 -0.01236128 0.04566913
14 1 3.54618136 1.75741522 5.39353819 1.36211297 -0.80690719 0.15270382 -0.57059822 0.00000000 0.00000000 0.00000000 -0.10556602 -0.14900346 -0.40371243
15 1 7.07956913 5.34502688 5.38089957 1.35563710 -0.68270404 -0.12854460 -0.71929930 0.00000000 0.00000000 0.00000000 0.08291837 -0.18069315 -0.43085038
16 1 3.54838033 5.35145221 5.39963948 1.30975161 -0.55951001 -0.28758848 -0.77732967 0.00000000 0.00000000 0.00000000 -0.03972319 0.00033744 -0.56677656
17 1 1.74087280 7.05291405 1.78827245 1.39647347 0.73603177 0.12459234 0.66538258 0.00000000 0.00000000 0.00000000 0.09766460 0.39968377 0.05352745
18 1 5.32887173 0.00280571 1.82255812 1.30293214 0.76145086 0.01414492 0.64806829 0.00000000 0.00000000 0.00000000 -0.16899276 0.17223079 -0.25484123
19 1 1.79631366 3.60343395 1.79825961 1.38940026 0.86960448 0.24944560 0.42610438 0.00000000 0.00000000 0.00000000 -0.40541532 -0.39844089 -0.01001058
20 1 5.30836674 3.56466262 1.84135485 1.27606659 0.46303952 0.45500697 0.76063333 0.00000000 0.00000000 0.00000000 0.19084369 -0.27310232 -0.47739702
21 1 1.77765011 7.08105255 5.35202412 1.26563079 -0.70167271 -0.15466584 -0.69550980 0.00000000 0.00000000 0.00000000 0.16938218 0.04896576 -0.31069916
22 1 5.37263526 7.07439977 5.38825861 1.36964867 -0.80766618 -0.23261415 -0.54181731 0.00000000 0.00000000 0.00000000 -0.51958611 -0.02439438 -0.39671118
23 1 1.74496219 3.54277112 5.33058153 1.26186743 -0.57272169 0.07644203 -0.81617797 0.00000000 0.00000000 0.00000000 0.40457206 0.24015007 -0.15657305
24 1 5.28864195 3.59298654 5.36352890 1.36659463 -0.64404540 0.00566374 -0.76496630 0.00000000 0.00000000 0.00000000 0.00799042 0.00726344 -0.12427221
25 1 1.77415492 1.77314846 7.04561362 1.35323296 0.65367090 0.08532155 0.75195385 0.00000000 0.00000000 0.00000000 -0.09977256 0.14983527 0.35644659
26 1 5.29358618 1.77375383 7.02025943 1.39531653 0.41797651 0.14848954 0.89624020 0.00000000 0.00000000 0.00000000 0.13917676 0.08796757 0.50249480
27 1 1.71766531 5.32751562 7.07655842 1.25780051 0.90318632 0.00031804 0.42924860 0.00000000 0.00000000 0.00000000 0.24761423 -0.07437196 -0.08168562
28 1 5.33790341 5.32436174 7.03562396 1.31040554 0.68601591 0.13242460 0.71543406 0.00000000 0.00000000 0.00000000 -0.12521242 0.01065028 0.46466331
29 1 1.73853699 1.80195250 3.54418156 1.28077154 -0.70201323 0.16634474 -0.69246434 0.00000000 0.00000000 0.00000000 0.14773340 -0.15584392 -0.15593633
30 1 5.35170326 1.78914469 3.54641448 1.33479695 -0.73999169 0.05819604 -0.67009366 0.00000000 0.00000000 0.00000000 -0.22952840 -0.17281380 -0.03830779
31 1 1.75087446 5.36007594 3.49431254 1.40010324 -0.49566301 -0.46903645 -0.73097400 0.00000000 0.00000000 0.00000000 0.17511656 -0.17458494 0.47976777
32 1 5.35610368 5.30847559 3.47361387 1.39460161 -0.75263713 -0.08578069 -0.65282389 0.00000000 0.00000000 0.00000000 -0.33455659 0.24870957 0.42516808
ITEM: TIMESTEP
10
ITEM: NUMBER OF ATOMS
32
ITEM: BOX BOUNDS xy xz yz pp pp pp
0.0000000000000000e+00 7.0990000000000002e+00 0.0000000000000000e+00
0.0000000000000000e+00 7.0990000000000002e+00 0.0000000000000000e+00
0.0000000000000000e+00 7.0990000000000002e+00 0.0000000000000000e+00
ITEM: ATOMS id type x y z c_spin[1] c_spin[2] c_spin[3] c_spin[4] c_spin[5] c_spin[6] c_spin[7] c_spin[8] c_spin[9] c_spin[10]
1 1 7.07771489 0.02988479 7.04613886 1.27479131 0.80809978 0.37202900 0.45669373 0.00000000 0.00000000 0.00000000 -28.67460627 -10.70394457 14.51726244
2 1 3.50118331 0.01204947 7.08003202 1.38447691 0.75697831 0.10551989 0.64486386 0.00000000 0.00000000 0.00000000 21.09177418 -8.47966893 12.05939616
3 1 0.03070507 3.58555451 7.05399205 1.28413331 0.70121120 0.43521120 0.56470706 0.00000000 0.00000000 0.00000000 -21.44359593 5.75783515 15.51293564
4 1 3.53405861 3.50861494 7.08841557 1.33018942 0.79961435 0.15264729 0.58078886 0.00000000 0.00000000 0.00000000 27.84239751 -6.70352448 34.14627841
5 1 7.08862303 0.03508690 3.50813395 1.36504818 -0.70078035 0.22509073 -0.67693505 0.00000000 0.00000000 0.00000000 -7.62381770 -6.54349420 -9.61844535
6 1 3.51765077 7.08220689 3.50374502 1.26820130 -0.62050000 -0.33373199 -0.70964971 0.00000000 0.00000000 0.00000000 0.85094988 12.46617970 6.37876286
7 1 7.05259559 3.52699938 3.55126316 1.35873693 -0.66034046 -0.21009939 -0.72097762 0.00000000 0.00000000 0.00000000 -11.68485976 4.16347829 -7.92533374
8 1 3.53278628 3.53572517 3.48341539 1.28039921 -0.55047587 -0.39029179 -0.73800314 0.00000000 0.00000000 0.00000000 8.38852239 21.47916706 106.46409452
9 1 7.05243772 1.78575304 1.78874088 1.26854257 0.68360260 0.22497448 0.69431547 0.00000000 0.00000000 0.00000000 -6.83496573 25.24614116 45.93260441
10 1 3.50690691 1.77098715 1.82581478 1.25436196 0.70666894 0.13071979 0.69536418 0.00000000 0.00000000 0.00000000 24.02044105 13.06092538 -9.86806505
11 1 0.00763720 5.37856612 1.79552091 1.37981499 0.55039213 0.23271942 0.80181680 0.00000000 0.00000000 0.00000000 -18.16309542 -10.50018836 -13.89061805
12 1 3.51288541 5.26651639 1.82086998 1.26742565 0.71236437 0.11846056 0.69173991 0.00000000 0.00000000 0.00000000 6.30405983 -18.07448729 6.08127897
13 1 0.03566206 1.82224476 5.35275519 1.32977835 -0.67864604 -0.12508089 -0.72373636 0.00000000 0.00000000 0.00000000 -22.30762814 1.78393221 11.18451492
14 1 3.54617107 1.75728608 5.39311341 1.36211297 -0.80690719 0.15270382 -0.57059822 0.00000000 0.00000000 0.00000000 14.92251484 -9.65969906 4.42526429
15 1 7.07929593 5.34554580 5.38081411 1.35563710 -0.68270404 -0.12854460 -0.71929930 0.00000000 0.00000000 0.00000000 -7.52485169 0.05030129 -6.17782490
16 1 3.54918276 5.35127148 5.39954499 1.30975161 -0.55951001 -0.28758848 -0.77732967 0.00000000 0.00000000 0.00000000 18.11670475 -7.97203649 -10.65691379
17 1 1.74020340 7.05291553 1.78921616 1.39647347 0.73603177 0.12459234 0.66538258 0.00000000 0.00000000 0.00000000 3.25040261 -1.00120847 24.02788435
18 1 5.32851490 0.00249461 1.82270915 1.30293214 0.76145086 0.01414492 0.64806829 0.00000000 0.00000000 0.00000000 -2.06441303 -0.44261239 -7.76237927
19 1 1.79575765 3.60411658 1.79849557 1.38940026 0.86960448 0.24944560 0.42610438 0.00000000 0.00000000 0.00000000 -13.70757598 46.09965627 59.22804978
20 1 5.30852132 3.56462886 1.84099083 1.27606659 0.46303952 0.45500697 0.76063333 0.00000000 0.00000000 0.00000000 -3.81108209 2.70000397 -6.46729685
21 1 1.77731187 7.08087729 5.35273589 1.26563079 -0.70167271 -0.15466584 -0.69550980 0.00000000 0.00000000 0.00000000 2.21203472 -22.57213660 1.52536178
22 1 5.37294207 7.07419520 5.38827752 1.36964867 -0.80766618 -0.23261415 -0.54181731 0.00000000 0.00000000 0.00000000 -4.20696350 -5.22868799 -36.44488175
23 1 1.74502407 3.54308716 5.33087665 1.26186743 -0.57272169 0.07644203 -0.81617797 0.00000000 0.00000000 0.00000000 -0.54327359 7.23927822 17.70714069
24 1 5.28899735 3.59228827 5.36345940 1.36659463 -0.64404540 0.00566374 -0.76496630 0.00000000 0.00000000 0.00000000 -12.88222867 -3.32687169 -17.03875817
25 1 1.77425980 1.77325826 7.04206586 1.35323296 0.65367090 0.08532155 0.75195385 0.00000000 0.00000000 0.00000000 3.43371190 -33.82705403 -198.17340807
26 1 5.29421552 1.77417095 7.02107268 1.39531653 0.41797651 0.14848954 0.89624020 0.00000000 0.00000000 0.00000000 8.28461026 31.32337029 51.54625342
27 1 1.71764197 5.32722998 7.07528014 1.25780051 0.90318632 0.00031804 0.42924860 0.00000000 0.00000000 0.00000000 7.41287051 -22.42723296 -80.10086602
28 1 5.33888004 5.32445143 7.03551469 1.31040554 0.68601591 0.13242460 0.71543406 0.00000000 0.00000000 0.00000000 8.98256104 2.17717541 12.27297202
29 1 1.73909894 1.80210996 3.54403535 1.28077154 -0.70201323 0.16634474 -0.69246434 0.00000000 0.00000000 0.00000000 26.29545761 15.37460217 -6.54261075
30 1 5.35174311 1.78900198 3.54657779 1.33479695 -0.73999169 0.05819604 -0.67009366 0.00000000 0.00000000 0.00000000 -13.43397045 1.79169110 1.40991611
31 1 1.75031272 5.36030047 3.49406696 1.40010324 -0.49566301 -0.46903645 -0.73097400 0.00000000 0.00000000 0.00000000 -10.57981364 -17.28617619 -4.85116321
32 1 5.35615443 5.30852090 3.47291992 1.39460161 -0.75263713 -0.08578069 -0.65282389 0.00000000 0.00000000 0.00000000 4.07772654 -5.96470972 -8.90140456
ITEM: TIMESTEP
20
ITEM: NUMBER OF ATOMS
32
ITEM: BOX BOUNDS xy xz yz pp pp pp
0.0000000000000000e+00 7.0990000000000002e+00 0.0000000000000000e+00
0.0000000000000000e+00 7.0990000000000002e+00 0.0000000000000000e+00
0.0000000000000000e+00 7.0990000000000002e+00 0.0000000000000000e+00
ITEM: ATOMS id type x y z c_spin[1] c_spin[2] c_spin[3] c_spin[4] c_spin[5] c_spin[6] c_spin[7] c_spin[8] c_spin[9] c_spin[10]
1 1 7.07717273 0.03001003 7.04675153 1.27479131 0.80809978 0.37202900 0.45669373 0.00000000 0.00000000 0.00000000 -25.00546240 -8.49250186 12.16302816
2 1 3.50152687 0.01191724 7.08091180 1.38447691 0.75697831 0.10551989 0.64486386 0.00000000 0.00000000 0.00000000 18.07020087 -7.79776982 8.71344483
3 1 0.03054161 3.58565926 7.05401343 1.28413331 0.70121120 0.43521120 0.56470706 0.00000000 0.00000000 0.00000000 -18.84369073 3.40667906 13.92902551
4 1 3.53414627 3.50798347 7.08915722 1.33018942 0.79961435 0.15264729 0.58078886 0.00000000 0.00000000 0.00000000 24.30327805 -8.96656151 32.73785207
5 1 7.08873819 0.03499932 3.50781977 1.36504818 -0.70078035 0.22509073 -0.67693505 0.00000000 0.00000000 0.00000000 -8.76801141 -7.91608573 -10.56353800
6 1 3.51741253 7.08227337 3.50298270 1.26820130 -0.62050000 -0.33373199 -0.70964971 0.00000000 0.00000000 0.00000000 2.16436651 14.41404804 6.14738716
7 1 7.05154550 3.52624611 3.55091452 1.35873693 -0.66034046 -0.21009939 -0.72097762 0.00000000 0.00000000 0.00000000 -11.19965871 3.64142306 -6.49494307
8 1 3.53221644 3.53598525 3.48459512 1.28039921 -0.55047587 -0.39029179 -0.73800314 0.00000000 0.00000000 0.00000000 17.79518556 27.77975905 57.79706258
9 1 7.05261270 1.78601417 1.78862572 1.26854257 0.68360260 0.22497448 0.69431547 0.00000000 0.00000000 0.00000000 -9.77018862 30.41925926 44.06985096
10 1 3.50762027 1.77168876 1.82557059 1.25436196 0.70666894 0.13071979 0.69536418 0.00000000 0.00000000 0.00000000 28.75365490 16.47283210 -7.67763747
11 1 0.00739679 5.37870815 1.79571888 1.37981499 0.55039213 0.23271942 0.80181680 0.00000000 0.00000000 0.00000000 -23.87682483 -12.13208124 -16.45974423
12 1 3.51324112 5.26701376 1.82124305 1.26742565 0.71236437 0.11846056 0.69173991 0.00000000 0.00000000 0.00000000 10.12107619 -22.31988465 7.40379072
13 1 0.03569180 1.82195054 5.35328230 1.32977835 -0.67864604 -0.12508089 -0.72373636 0.00000000 0.00000000 0.00000000 -18.48838388 3.05697014 8.04680655
14 1 3.54613435 1.75705430 5.39264307 1.36211297 -0.80690719 0.15270382 -0.57059822 0.00000000 0.00000000 0.00000000 12.73285004 -13.06973990 4.27614337
15 1 7.07902826 5.34603427 5.38065554 1.35563710 -0.68270404 -0.12854460 -0.71929930 0.00000000 0.00000000 0.00000000 -5.77328781 -0.76206761 -9.10465769
16 1 3.54999568 5.35110634 5.39936932 1.30975161 -0.55951001 -0.28758848 -0.77732967 0.00000000 0.00000000 0.00000000 16.31451062 -7.25613148 -13.77576301
17 1 1.73953492 7.05290925 1.79027062 1.39647347 0.73603177 0.12459234 0.66538258 0.00000000 0.00000000 0.00000000 2.89006820 -1.45264633 29.14453258
18 1 5.32815470 0.00218213 1.82284146 1.30293214 0.76145086 0.01414492 0.64806829 0.00000000 0.00000000 0.00000000 -2.06663447 -0.48687680 -8.11772807
19 1 1.79517172 3.60507947 1.79904667 1.38940026 0.86960448 0.24944560 0.42610438 0.00000000 0.00000000 0.00000000 -15.37579381 60.07654498 75.22713367
20 1 5.30864726 3.56460368 1.84060782 1.27606659 0.46303952 0.45500697 0.76063333 0.00000000 0.00000000 0.00000000 -5.08248223 2.96001190 -6.83137006
21 1 1.77704796 7.08069826 5.35326115 1.26563079 -0.70167271 -0.15466584 -0.69550980 0.00000000 0.00000000 0.00000000 4.38020409 -24.49939851 -7.49004460
22 1 5.37320230 7.07396388 5.38825022 1.36964867 -0.80766618 -0.23261415 -0.54181731 0.00000000 0.00000000 0.00000000 -5.60113325 -6.75748522 -34.92405551
23 1 1.74503471 3.54332419 5.33104244 1.26186743 -0.57272169 0.07644203 -0.81617797 0.00000000 0.00000000 0.00000000 -1.23153544 5.06946119 11.03650259
24 1 5.28935426 3.59160187 5.36334600 1.36659463 -0.64404540 0.00566374 -0.76496630 0.00000000 0.00000000 0.00000000 -12.52970260 -1.90412237 -17.49144172
25 1 1.77414081 1.77270220 7.03978097 1.35323296 0.65367090 0.08532155 0.75195385 0.00000000 0.00000000 0.00000000 -4.78898198 -44.06007194 -133.59747707
26 1 5.29482867 1.77461258 7.02190287 1.39531653 0.41797651 0.14848954 0.89624020 0.00000000 0.00000000 0.00000000 6.60313906 29.54918937 46.86838474
27 1 1.71764625 5.32689210 7.07408719 1.25780051 0.90318632 0.00031804 0.42924860 0.00000000 0.00000000 0.00000000 8.72856789 -23.17575004 -66.47801106
28 1 5.33986426 5.32453660 7.03540072 1.31040554 0.68601591 0.13242460 0.71543406 0.00000000 0.00000000 0.00000000 8.42024169 1.59589167 10.65761683
29 1 1.73977457 1.80230104 3.54383388 1.28077154 -0.70201323 0.16634474 -0.69246434 0.00000000 0.00000000 0.00000000 31.08418252 16.00817088 -9.94234388
30 1 5.35172929 1.78886978 3.54672499 1.33479695 -0.73999169 0.05819604 -0.67009366 0.00000000 0.00000000 0.00000000 -15.81387493 2.53281207 0.06044177
31 1 1.74971865 5.36047312 3.49375812 1.40010324 -0.49566301 -0.46903645 -0.73097400 0.00000000 0.00000000 0.00000000 -11.95360986 -19.03584716 -9.18219152
32 1 5.35620427 5.30854583 3.47219516 1.39460161 -0.75263713 -0.08578069 -0.65282389 0.00000000 0.00000000 0.00000000 3.80773264 -6.89803272 -10.14805896
ITEM: TIMESTEP
30
ITEM: NUMBER OF ATOMS
32
ITEM: BOX BOUNDS xy xz yz pp pp pp
0.0000000000000000e+00 7.0990000000000002e+00 0.0000000000000000e+00
0.0000000000000000e+00 7.0990000000000002e+00 0.0000000000000000e+00
0.0000000000000000e+00 7.0990000000000002e+00 0.0000000000000000e+00
ITEM: ATOMS id type x y z c_spin[1] c_spin[2] c_spin[3] c_spin[4] c_spin[5] c_spin[6] c_spin[7] c_spin[8] c_spin[9] c_spin[10]
1 1 7.07668311 0.03014719 7.04732844 1.27479131 0.80809978 0.37202900 0.45669373 0.00000000 0.00000000 0.00000000 -22.49296288 -8.62882366 10.39426211
2 1 3.50181458 0.01178194 7.08173925 1.38447691 0.75697831 0.10551989 0.64486386 0.00000000 0.00000000 0.00000000 15.24430028 -8.50700781 6.13391406
3 1 0.03042639 3.58573928 7.05400998 1.28413331 0.70121120 0.43521120 0.56470706 0.00000000 0.00000000 0.00000000 -16.21222672 2.63512756 12.66512411
4 1 3.53418270 3.50734301 7.08987566 1.33018942 0.79961435 0.15264729 0.58078886 0.00000000 0.00000000 0.00000000 21.77907203 -8.43332289 31.45118863
5 1 7.08883270 0.03488889 3.50748698 1.36504818 -0.70078035 0.22509073 -0.67693505 0.00000000 0.00000000 0.00000000 -9.89744035 -8.93341667 -11.79265021
6 1 3.51719760 7.08237283 3.50221484 1.26820130 -0.62050000 -0.33373199 -0.70964971 0.00000000 0.00000000 0.00000000 3.42618800 15.99700825 5.68853212
7 1 7.05050099 3.52548839 3.55058444 1.35873693 -0.66034046 -0.21009939 -0.72097762 0.00000000 0.00000000 0.00000000 -10.89468040 3.52881220 -5.67656389
8 1 3.53176755 3.53619420 3.48513514 1.28039921 -0.55047587 -0.39029179 -0.73800314 0.00000000 0.00000000 0.00000000 22.25792380 21.74587487 32.13205277
9 1 7.05273752 1.78636436 1.78847952 1.26854257 0.68360260 0.22497448 0.69431547 0.00000000 0.00000000 0.00000000 -11.87330855 34.91355129 42.84717949
10 1 3.50840589 1.77245059 1.82536603 1.25436196 0.70666894 0.13071979 0.69536418 0.00000000 0.00000000 0.00000000 31.38117826 19.74749956 -5.85111001
11 1 0.00706165 5.37882052 1.79587564 1.37981499 0.55039213 0.23271942 0.80181680 0.00000000 0.00000000 0.00000000 -28.04989753 -13.71835829 -18.19359365
12 1 3.51365970 5.26743951 1.82163834 1.26742565 0.71236437 0.11846056 0.69173991 0.00000000 0.00000000 0.00000000 12.90694435 -25.68082951 8.22721628
13 1 0.03577403 1.82166507 5.35378119 1.32977835 -0.67864604 -0.12508089 -0.72373636 0.00000000 0.00000000 0.00000000 -16.09206654 3.19064746 7.45472407
14 1 3.54607203 1.75677722 5.39220058 1.36211297 -0.80690719 0.15270382 -0.57059822 0.00000000 0.00000000 0.00000000 11.81261435 -15.34585293 7.18950018
15 1 7.07879266 5.34651622 5.38045747 1.35563710 -0.68270404 -0.12854460 -0.71929930 0.00000000 0.00000000 0.00000000 -3.96446148 -0.89323850 -10.84064212
16 1 3.55077663 5.35094572 5.39914932 1.30975161 -0.55951001 -0.28758848 -0.77732967 0.00000000 0.00000000 0.00000000 14.56096425 -7.22930262 -15.86387941
17 1 1.73886181 7.05289466 1.79142574 1.39647347 0.73603177 0.12459234 0.66538258 0.00000000 0.00000000 0.00000000 2.88667212 -1.91673821 35.92014889
18 1 5.32779434 0.00186857 1.82296757 1.30293214 0.76145086 0.01414492 0.64806829 0.00000000 0.00000000 0.00000000 -2.07770837 -0.57411032 -8.48524382
19 1 1.79455169 3.60626263 1.79985644 1.38940026 0.86960448 0.24944560 0.42610438 0.00000000 0.00000000 0.00000000 -17.01410703 68.86234264 85.78196173
20 1 5.30875426 3.56458337 1.84022033 1.27606659 0.46303952 0.45500697 0.76063333 0.00000000 0.00000000 0.00000000 -5.85826789 3.26124901 -6.97002440
21 1 1.77680576 7.08046456 5.35366769 1.26563079 -0.70167271 -0.15466584 -0.69550980 0.00000000 0.00000000 0.00000000 5.19548839 -27.45337474 -12.21241011
22 1 5.37344669 7.07370362 5.38825281 1.36964867 -0.80766618 -0.23261415 -0.54181731 0.00000000 0.00000000 0.00000000 -6.26782384 -8.53654080 -33.05559161
23 1 1.74504764 3.54355196 5.33112681 1.26186743 -0.57272169 0.07644203 -0.81617797 0.00000000 0.00000000 0.00000000 -0.71077535 5.55992424 7.79605003
24 1 5.28971011 3.59094185 5.36322897 1.36659463 -0.64404540 0.00566374 -0.76496630 0.00000000 0.00000000 0.00000000 -12.81256172 -0.30294072 -17.52760812
25 1 1.77393358 1.77212973 7.03826874 1.35323296 0.65367090 0.08532155 0.75195385 0.00000000 0.00000000 0.00000000 -7.68182390 -40.52413422 -104.87983559
26 1 5.29541829 1.77502492 7.02265490 1.39531653 0.41797651 0.14848954 0.89624020 0.00000000 0.00000000 0.00000000 5.53871426 27.91045787 42.54664490
27 1 1.71767280 5.32654164 7.07310997 1.25780051 0.90318632 0.00031804 0.42924860 0.00000000 0.00000000 0.00000000 9.69068230 -23.68761959 -55.56951612
28 1 5.34083861 5.32461164 7.03526009 1.31040554 0.68601591 0.13242460 0.71543406 0.00000000 0.00000000 0.00000000 7.84299502 1.03619363 9.20978668
29 1 1.74052668 1.80250711 3.54357152 1.28077154 -0.70201323 0.16634474 -0.69246434 0.00000000 0.00000000 0.00000000 34.25804738 17.24122453 -13.19777751
30 1 5.35167658 1.78875031 3.54684932 1.33479695 -0.73999169 0.05819604 -0.67009366 0.00000000 0.00000000 0.00000000 -17.46119343 3.08632950 -1.02287070
31 1 1.74910008 5.36061430 3.49337178 1.40010324 -0.49566301 -0.46903645 -0.73097400 0.00000000 0.00000000 0.00000000 -13.08373725 -20.73890226 -13.24989533
32 1 5.35625113 5.30855447 3.47144933 1.39460161 -0.75263713 -0.08578069 -0.65282389 0.00000000 0.00000000 0.00000000 3.66325663 -7.61172820 -11.04907834
ITEM: TIMESTEP
40
ITEM: NUMBER OF ATOMS
32
ITEM: BOX BOUNDS xy xz yz pp pp pp
0.0000000000000000e+00 7.0990000000000002e+00 0.0000000000000000e+00
0.0000000000000000e+00 7.0990000000000002e+00 0.0000000000000000e+00
0.0000000000000000e+00 7.0990000000000002e+00 0.0000000000000000e+00
ITEM: ATOMS id type x y z c_spin[1] c_spin[2] c_spin[3] c_spin[4] c_spin[5] c_spin[6] c_spin[7] c_spin[8] c_spin[9] c_spin[10]
1 1 7.07623292 0.03028211 7.04787828 1.27479131 0.80809978 0.37202900 0.45669373 0.00000000 0.00000000 0.00000000 -20.43937569 -8.65152311 9.04516422
2 1 3.50206843 0.01163416 7.08253009 1.38447691 0.75697831 0.10551989 0.64486386 0.00000000 0.00000000 0.00000000 14.35896442 -9.16687328 4.55338269
3 1 0.03035116 3.58580920 7.05398672 1.28413331 0.70121120 0.43521120 0.56470706 0.00000000 0.00000000 0.00000000 -14.27237890 2.19959792 11.64794638
4 1 3.53417864 3.50671437 7.09057215 1.33018942 0.79961435 0.15264729 0.58078886 0.00000000 0.00000000 0.00000000 19.62005777 -7.68267318 30.18648131
5 1 7.08891188 0.03477112 3.50713116 1.36504818 -0.70078035 0.22509073 -0.67693505 0.00000000 0.00000000 0.00000000 -10.47202931 -8.59748897 -13.25518080
6 1 3.51699997 7.08248861 3.50143635 1.26820130 -0.62050000 -0.33373199 -0.70964971 0.00000000 0.00000000 0.00000000 4.09510490 16.13469719 4.86199454
7 1 7.04946458 3.52472826 3.55026718 1.35873693 -0.66034046 -0.21009939 -0.72097762 0.00000000 0.00000000 0.00000000 -10.20321028 3.33715696 -4.99741309
8 1 3.53134918 3.53634849 3.48534879 1.28039921 -0.55047587 -0.39029179 -0.73800314 0.00000000 0.00000000 0.00000000 20.68217328 22.56532364 20.37924999
9 1 7.05285403 1.78676761 1.78833048 1.26854257 0.68360260 0.22497448 0.69431547 0.00000000 0.00000000 0.00000000 -10.29615893 36.15946536 44.01553320
10 1 3.50919163 1.77325913 1.82517389 1.25436196 0.70666894 0.13071979 0.69536418 0.00000000 0.00000000 0.00000000 28.08893589 21.71563349 -6.55880102
11 1 0.00669783 5.37891280 1.79602181 1.37981499 0.55039213 0.23271942 0.80181680 0.00000000 0.00000000 0.00000000 -26.50788836 -14.34787343 -17.40222400
12 1 3.51409914 5.26783407 1.82203107 1.26742565 0.71236437 0.11846056 0.69173991 0.00000000 0.00000000 0.00000000 12.11348786 -25.51838371 6.81444608
13 1 0.03589301 1.82138231 5.35427452 1.32977835 -0.67864604 -0.12508089 -0.72373636 0.00000000 0.00000000 0.00000000 -14.22914206 3.40877765 7.33685248
14 1 3.54599758 1.75645940 5.39181515 1.36211297 -0.80690719 0.15270382 -0.57059822 0.00000000 0.00000000 0.00000000 11.31730135 -17.84016537 10.79641614
15 1 7.07858585 5.34699627 5.38023385 1.35563710 -0.68270404 -0.12854460 -0.71929930 0.00000000 0.00000000 0.00000000 -2.48119228 -1.01235325 -12.07180713
16 1 3.55153005 5.35078566 5.39889727 1.30975161 -0.55951001 -0.28758848 -0.77732967 0.00000000 0.00000000 0.00000000 13.15580074 -7.16602167 -17.48229607
17 1 1.73819608 7.05287362 1.79271335 1.39647347 0.73603177 0.12459234 0.66538258 0.00000000 0.00000000 0.00000000 3.86459708 -2.17155868 44.73190099
18 1 5.32743396 0.00155307 1.82308711 1.30293214 0.76145086 0.01414492 0.64806829 0.00000000 0.00000000 0.00000000 -2.06383608 -0.71389704 -8.88375642
19 1 1.79392366 3.60748125 1.80071069 1.38940026 0.86960448 0.24944560 0.42610438 0.00000000 0.00000000 0.00000000 -15.91463497 62.48035556 78.27341750
20 1 5.30885494 3.56456810 1.83983189 1.27606659 0.46303952 0.45500697 0.76063333 0.00000000 0.00000000 0.00000000 -5.72989347 3.52545329 -6.94162033
21 1 1.77657899 7.08021188 5.35402154 1.26563079 -0.70167271 -0.15466584 -0.69550980 0.00000000 0.00000000 0.00000000 6.24061971 -26.11935526 -13.34987045
22 1 5.37367931 7.07341259 5.38828851 1.36964867 -0.80766618 -0.23261415 -0.54181731 0.00000000 0.00000000 0.00000000 -6.99825639 -10.28898609 -31.09232352
23 1 1.74506883 3.54379126 5.33116408 1.26186743 -0.57272169 0.07644203 -0.81617797 0.00000000 0.00000000 0.00000000 -0.32226700 6.32673360 5.53734256
24 1 5.29006099 3.59030964 5.36311230 1.36659463 -0.64404540 0.00566374 -0.76496630 0.00000000 0.00000000 0.00000000 -13.08474787 1.29839913 -17.45593483
25 1 1.77369546 1.77161876 7.03715225 1.35323296 0.65367090 0.08532155 0.75195385 0.00000000 0.00000000 0.00000000 -8.22868022 -37.28126772 -87.09417328
26 1 5.29599211 1.77540954 7.02333533 1.39531653 0.41797651 0.14848954 0.89624020 0.00000000 0.00000000 0.00000000 4.77366437 26.34890457 38.62016850
27 1 1.71770474 5.32619124 7.07229685 1.25780051 0.90318632 0.00031804 0.42924860 0.00000000 0.00000000 0.00000000 9.18325892 -23.00963869 -47.69722533
28 1 5.34180310 5.32467809 7.03509597 1.31040554 0.68601591 0.13242460 0.71543406 0.00000000 0.00000000 0.00000000 7.28404738 0.62638646 7.95799530
29 1 1.74129629 1.80274140 3.54326743 1.28077154 -0.70201323 0.16634474 -0.69246434 0.00000000 0.00000000 0.00000000 32.54420425 19.36139196 -14.50444414
30 1 5.35161360 1.78863408 3.54696362 1.33479695 -0.73999169 0.05819604 -0.67009366 0.00000000 0.00000000 0.00000000 -16.73630135 2.81751187 -0.96102447
31 1 1.74847398 5.36073239 3.49293591 1.40010324 -0.49566301 -0.46903645 -0.73097400 0.00000000 0.00000000 0.00000000 -12.62684342 -21.62120512 -14.55558059
32 1 5.35629383 5.30855985 3.47069927 1.39460161 -0.75263713 -0.08578069 -0.65282389 0.00000000 0.00000000 0.00000000 3.28461606 -7.11652848 -10.45460120
ITEM: TIMESTEP
50
ITEM: NUMBER OF ATOMS
32
ITEM: BOX BOUNDS xy xz yz pp pp pp
0.0000000000000000e+00 7.0990000000000002e+00 0.0000000000000000e+00
0.0000000000000000e+00 7.0990000000000002e+00 0.0000000000000000e+00
0.0000000000000000e+00 7.0990000000000002e+00 0.0000000000000000e+00
ITEM: ATOMS id type x y z c_spin[1] c_spin[2] c_spin[3] c_spin[4] c_spin[5] c_spin[6] c_spin[7] c_spin[8] c_spin[9] c_spin[10]
1 1 7.07581553 0.03041833 7.04840694 1.27479131 0.80809978 0.37202900 0.45669373 0.00000000 0.00000000 0.00000000 -18.72790667 -8.49755286 7.93876229
2 1 3.50231698 0.01147583 7.08329837 1.38447691 0.75697831 0.10551989 0.64486386 0.00000000 0.00000000 0.00000000 14.50129072 -9.75278298 3.46075009
3 1 0.03030508 3.58587268 7.05394740 1.28413331 0.70121120 0.43521120 0.56470706 0.00000000 0.00000000 0.00000000 -12.85531882 1.88979487 10.81523244
4 1 3.53413941 3.50609855 7.09124663 1.33018942 0.79961435 0.15264729 0.58078886 0.00000000 0.00000000 0.00000000 17.73398823 -6.94605019 28.89781545
5 1 7.08898299 0.03466590 3.50674758 1.36504818 -0.70078035 0.22509073 -0.67693505 0.00000000 0.00000000 0.00000000 -10.94248658 -7.60916605 -15.07177321
6 1 3.51681185 7.08260015 3.50064008 1.26820130 -0.62050000 -0.33373199 -0.70964971 0.00000000 0.00000000 0.00000000 4.64089638 15.66564729 3.57025117
7 1 7.04844190 3.52396458 3.54996106 1.35873693 -0.66034046 -0.21009939 -0.72097762 0.00000000 0.00000000 0.00000000 -9.35819250 3.15225936 -4.39629920
8 1 3.53087476 3.53655717 3.48542414 1.28039921 -0.55047587 -0.39029179 -0.73800314 0.00000000 0.00000000 0.00000000 16.34060996 27.53748483 15.71188724
9 1 7.05301496 1.78717736 1.78821307 1.26854257 0.68360260 0.22497448 0.69431547 0.00000000 0.00000000 0.00000000 -7.13004467 36.04401936 46.27931399
10 1 3.50989319 1.77409612 1.82495709 1.25436196 0.70666894 0.13071979 0.69536418 0.00000000 0.00000000 0.00000000 22.27638156 23.22266541 -8.45082710
11 1 0.00638758 5.37899729 1.79619317 1.37981499 0.55039213 0.23271942 0.80181680 0.00000000 0.00000000 0.00000000 -22.46886857 -14.80499359 -15.55187668
12 1 3.51450815 5.26824713 1.82238802 1.26742565 0.71236437 0.11846056 0.69173991 0.00000000 0.00000000 0.00000000 9.77328344 -23.96468953 4.30257036
13 1 0.03604144 1.82110410 5.35476700 1.32977835 -0.67864604 -0.12508089 -0.72373636 0.00000000 0.00000000 0.00000000 -12.69971890 3.70853326 7.35112843
14 1 3.54591651 1.75609678 5.39149359 1.36211297 -0.80690719 0.15270382 -0.57059822 0.00000000 0.00000000 0.00000000 11.05310380 -20.51909697 14.54916426
15 1 7.07840220 5.34747376 5.37999110 1.35563710 -0.68270404 -0.12854460 -0.71929930 0.00000000 0.00000000 0.00000000 -1.30362173 -1.19383541 -13.05421429
16 1 3.55226139 5.35062719 5.39861975 1.30975161 -0.55951001 -0.28758848 -0.77732967 0.00000000 0.00000000 0.00000000 12.01534622 -7.04352335 -18.79497089
17 1 1.73755245 7.05284889 1.79417063 1.39647347 0.73603177 0.12459234 0.66538258 0.00000000 0.00000000 0.00000000 5.37572301 -2.38701447 55.83286818
18 1 5.32707402 0.00123492 1.82319945 1.30293214 0.76145086 0.01414492 0.64806829 0.00000000 0.00000000 0.00000000 -2.02587969 -0.87885097 -9.32419988
19 1 1.79332838 3.60852015 1.80135053 1.38940026 0.86960448 0.24944560 0.42610438 0.00000000 0.00000000 0.00000000 -13.52632305 49.67514377 62.85701417
20 1 5.30896186 3.56455688 1.83944440 1.27606659 0.46303952 0.45500697 0.76063333 0.00000000 0.00000000 0.00000000 -5.22450497 3.72790671 -6.87426714
21 1 1.77637207 7.08000297 5.35437169 1.26563079 -0.70167271 -0.15466584 -0.69550980 0.00000000 0.00000000 0.00000000 7.46898855 -22.85800407 -12.90726587