ITEM: TIMESTEP
0
ITEM: NUMBER OF ATOMS
32
ITEM: BOX BOUNDS xy xz yz pp pp pp
0.0000000000000000e+00 7.0990000000000002e+00 0.0000000000000000e+00
0.0000000000000000e+00 7.0990000000000002e+00 0.0000000000000000e+00
0.0000000000000000e+00 7.0990000000000002e+00 0.0000000000000000e+00
ITEM: ATOMS id type x y z c_spin[1] c_spin[2] c_spin[3] c_spin[4] c_spin[5] c_spin[6] c_spin[7] c_spin[8] c_spin[9] c_spin[10]
1 1 7.07827872 0.02983663 7.04550992 1.27479131 0.80809978 0.37202900 0.45669373 0.12366443 0.03724589 0.10055999 0.09531031 -0.01786129 0.44254716
2 1 3.50085721 0.01220635 7.07911962 1.38447691 0.75697831 0.10551989 0.64486386 0.13208659 0.01727443 0.12454274 0.29316609 -0.17743788 0.30116463
3 1 0.03084733 3.58539692 7.05397106 1.28413331 0.70121120 0.43521120 0.56470706 0.12499894 0.05792637 0.11421819 -0.36302720 -0.25591411 0.38914517
4 1 3.53394872 3.50913291 7.08771224 1.33018942 0.79961435 0.15264729 0.58078886 0.13621272 0.02791261 0.11322270 -0.03643657 0.32031177 0.11781483
5 1 7.08847976 0.03514509 3.50841879 1.36504818 -0.70078035 0.22509073 -0.67693505 -0.11904922 -0.00124299 -0.12470448 -0.01636250 -0.08053418 0.34604595
6 1 3.51790839 7.08218784 3.50451519 1.26820130 -0.62050000 -0.33373199 -0.70964971 -0.13083276 -0.05022081 -0.14557967 0.15339302 0.06212269 0.30153224
7 1 7.05363980 3.52774198 3.55163191 1.35873693 -0.66034046 -0.21009939 -0.72097762 -0.11182342 -0.02941267 -0.12831678 0.26461548 0.25681376 -0.08359778
8 1 3.53358390 3.53607119 3.48131958 1.28039921 -0.55047587 -0.39029179 -0.73800314 -0.11382714 -0.03933419 -0.13612739 0.00842908 0.04963572 0.69899564
9 1 7.05221892 1.78560448 1.78891561 1.26854257 0.68360260 0.22497448 0.69431547 0.12836704 0.04122719 0.14236132 0.24212851 0.07735059 -0.20796106
10 1 3.50630771 1.77035381 1.82606190 1.25436196 0.70666894 0.13071979 0.69536418 0.12819506 0.02462874 0.13852489 0.24795300 -0.05413273 -0.23076633
11 1 0.00777042 5.37838637 1.79526281 1.37981499 0.55039213 0.23271942 0.80181680 0.10233060 0.03367629 0.12317050 -0.22084101 -0.36950596 -0.23168754
12 1 3.51259239 5.26593102 1.82052157 1.26742565 0.71236437 0.11846056 0.69173991 0.12255744 0.01162452 0.12214264 0.34010458 0.50136962 -0.40985363
13 1 0.03566900 1.82259672 5.35215132 1.32977835 -0.67864604 -0.12508089 -0.72373636 -0.11721119 -0.01471501 -0.11623915 -0.29066927 -0.19959063 -0.13798587
14 1 3.54618136 1.75741522 5.39353819 1.36211297 -0.80690719 0.15270382 -0.57059822 -0.13469006 -0.00368834 -0.11563700 -0.04343868 0.03467454 -0.71134177
15 1 7.07956913 5.34502688 5.38089957 1.35563710 -0.68270404 -0.12854460 -0.71929930 -0.11268005 -0.02372073 -0.11396988 0.19207435 -0.10945032 -0.56144871
16 1 3.54838033 5.35145221 5.39963948 1.30975161 -0.55951001 -0.28758848 -0.77732967 -0.12509514 -0.05143860 -0.14716549 -0.07309879 -0.15938897 -0.49697460
17 1 1.74087280 7.05291405 1.78827245 1.39647347 0.73603177 0.12459234 0.66538258 0.12288700 0.02270145 0.11680413 0.21019885 0.54219388 -0.15517598
18 1 5.32887173 0.00280571 1.82255812 1.30293214 0.76145086 0.01414492 0.64806829 0.13447977 0.01804632 0.13497264 -0.19159629 0.13116059 -0.37470043
19 1 1.79631366 3.60343395 1.79825961 1.38940026 0.86960448 0.24944560 0.42610438 0.13765349 0.03166560 0.10220991 -0.43529826 -0.47831340 -0.14390386
20 1 5.30836674 3.56466262 1.84135485 1.27606659 0.46303952 0.45500697 0.76063333 0.10781415 0.05504780 0.13963423 0.11939224 -0.22244051 -0.63294519
21 1 1.77765011 7.08105255 5.35202412 1.26563079 -0.70167271 -0.15466584 -0.69550980 -0.11927385 -0.02455547 -0.12568603 -0.04970847 0.15502248 -0.26650153
22 1 5.37263526 7.07439977 5.38825861 1.36964867 -0.80766618 -0.23261415 -0.54181731 -0.13222169 -0.02677018 -0.11190324 -0.46997904 0.23121523 -0.59440328
23 1 1.74496219 3.54277112 5.33058153 1.26186743 -0.57272169 0.07644203 -0.81617797 -0.10930720 -0.01112234 -0.14304998 0.37805077 0.20755835 -0.13157173
24 1 5.28864195 3.59298654 5.36352890 1.36659463 -0.64404540 0.00566374 -0.76496630 -0.12208256 -0.01457429 -0.13136888 0.09644663 -0.23292998 -0.28489971
25 1 1.77415492 1.77314846 7.04561362 1.35323296 0.65367090 0.08532155 0.75195385 0.11989882 0.02110817 0.12714211 -0.12754092 0.06828293 0.46680942
26 1 5.29358618 1.77375383 7.02025943 1.39531653 0.41797651 0.14848954 0.89624020 0.10416080 0.02639386 0.15139577 0.16914045 0.09078171 0.60988006
27 1 1.71766531 5.32751562 7.07655842 1.25780051 0.90318632 0.00031804 0.42924860 0.13519160 0.01072345 0.09679396 0.36244949 -0.00765781 0.07381174
28 1 5.33790341 5.32436174 7.03562396 1.31040554 0.68601591 0.13242460 0.71543406 0.11701044 0.02323594 0.13016190 -0.25903732 -0.00857703 0.72789893
29 1 1.73853699 1.80195250 3.54418156 1.28077154 -0.70201323 0.16634474 -0.69246434 -0.13162624 -0.00129027 -0.12953957 0.16333578 -0.18469562 -0.06947316
30 1 5.35170326 1.78914469 3.54641448 1.33479695 -0.73999169 0.05819604 -0.67009366 -0.13437812 -0.00965125 -0.12122903 -0.42029622 -0.14448842 0.11970603
31 1 1.75087446 5.36007594 3.49431254 1.40010324 -0.49566301 -0.46903645 -0.73097400 -0.10311315 -0.05613208 -0.13093622 0.04369229 -0.25798727 0.57834343
32 1 5.35610368 5.30847559 3.47361387 1.39460161 -0.75263713 -0.08578069 -0.65282389 -0.13136197 -0.03097034 -0.11942310 -0.38255042 0.23241226 0.55149695
