ITEM: TIMESTEP
0
ITEM: NUMBER OF ATOMS
32
ITEM: BOX BOUNDS xy xz yz pp pp pp
0.0000000000000000e+00 7.0990000000000002e+00 0.0000000000000000e+00
0.0000000000000000e+00 7.0990000000000002e+00 0.0000000000000000e+00
0.0000000000000000e+00 7.0990000000000002e+00 0.0000000000000000e+00
ITEM: ATOMS id type x y z c_spin[1] c_spin[2] c_spin[3] c_spin[4] c_spin[5] c_spin[6] c_spin[7] c_spin[8] c_spin[9] c_spin[10]
1 1 7.07827872 0.02983663 7.04550992 1.27479131 0.80809978 0.37202900 0.45669373 0.00000000 0.00000000 0.00000000 -0.07064902 0.15601456 0.39990156
2 1 3.50085721 0.01220635 7.07911962 1.38447691 0.75697831 0.10551989 0.64486386 0.00000000 0.00000000 0.00000000 0.32310178 -0.02217067 0.14391081
3 1 0.03084733 3.58539692 7.05397106 1.28413331 0.70121120 0.43521120 0.56470706 0.00000000 0.00000000 0.00000000 -0.31190337 -0.36030336 0.40600915
4 1 3.53394872 3.50913291 7.08771224 1.33018942 0.79961435 0.15264729 0.58078886 0.00000000 0.00000000 0.00000000 -0.06569449 0.05810208 0.01011628
5 1 7.08847976 0.03514509 3.50841879 1.36504818 -0.70078035 0.22509073 -0.67693505 0.00000000 0.00000000 0.00000000 0.02310985 0.08075958 0.08639637
6 1 3.51790839 7.08218784 3.50451519 1.26820130 -0.62050000 -0.33373199 -0.70964971 0.00000000 0.00000000 0.00000000 0.13791214 -0.03567393 0.29899355
7 1 7.05363980 3.52774198 3.55163191 1.35873693 -0.66034046 -0.21009939 -0.72097762 0.00000000 0.00000000 0.00000000 0.24019365 0.10268106 -0.12791495
8 1 3.53358390 3.53607119 3.48131958 1.28039921 -0.55047587 -0.39029179 -0.73800314 0.00000000 0.00000000 0.00000000 -0.04620421 0.10987696 0.46499583
9 1 7.05221892 1.78560448 1.78891561 1.26854257 0.68360260 0.22497448 0.69431547 0.00000000 0.00000000 0.00000000 0.15109743 0.12338641 -0.26423792
10 1 3.50630771 1.77035381 1.82606190 1.25436196 0.70666894 0.13071979 0.69536418 0.00000000 0.00000000 0.00000000 0.14357249 -0.07819813 -0.07402068
11 1 0.00777042 5.37838637 1.79526281 1.37981499 0.55039213 0.23271942 0.80181680 0.00000000 0.00000000 0.00000000 -0.20403151 -0.23134725 -0.14608487
12 1 3.51259239 5.26593102 1.82052157 1.26742565 0.71236437 0.11846056 0.69173991 0.00000000 0.00000000 0.00000000 0.19624312 0.34668915 -0.11803001
13 1 0.03566900 1.82259672 5.35215132 1.32977835 -0.67864604 -0.12508089 -0.72373636 0.00000000 0.00000000 0.00000000 -0.15140679 -0.01236131 0.04566831
14 1 3.54618136 1.75741522 5.39353819 1.36211297 -0.80690719 0.15270382 -0.57059822 0.00000000 0.00000000 0.00000000 -0.10556530 -0.14900213 -0.40371154
15 1 7.07956913 5.34502688 5.38089957 1.35563710 -0.68270404 -0.12854460 -0.71929930 0.00000000 0.00000000 0.00000000 0.08291763 -0.18069288 -0.43085103
16 1 3.54838033 5.35145221 5.39963948 1.30975161 -0.55951001 -0.28758848 -0.77732967 0.00000000 0.00000000 0.00000000 -0.03972256 0.00033619 -0.56677576
17 1 1.74087280 7.05291405 1.78827245 1.39647347 0.73603177 0.12459234 0.66538258 0.00000000 0.00000000 0.00000000 0.09766406 0.39968436 0.05352846
18 1 5.32887173 0.00280571 1.82255812 1.30293214 0.76145086 0.01414492 0.64806829 0.00000000 0.00000000 0.00000000 -0.16899213 0.17223085 -0.25484166
19 1 1.79631366 3.60343395 1.79825961 1.38940026 0.86960448 0.24944560 0.42610438 0.00000000 0.00000000 0.00000000 -0.40541433 -0.39844124 -0.01000989
20 1 5.30836674 3.56466262 1.84135485 1.27606659 0.46303952 0.45500697 0.76063333 0.00000000 0.00000000 0.00000000 0.19084269 -0.27310210 -0.47739723
21 1 1.77765011 7.08105255 5.35202412 1.26563079 -0.70167271 -0.15466584 -0.69550980 0.00000000 0.00000000 0.00000000 0.16938166 0.04896519 -0.31070110
22 1 5.37263526 7.07439977 5.38825861 1.36964867 -0.80766618 -0.23261415 -0.54181731 0.00000000 0.00000000 0.00000000 -0.51958528 -0.02439551 -0.39671112
23 1 1.74496219 3.54277112 5.33058153 1.26186743 -0.57272169 0.07644203 -0.81617797 0.00000000 0.00000000 0.00000000 0.40457205 0.24015045 -0.15657295
24 1 5.28864195 3.59298654 5.36352890 1.36659463 -0.64404540 0.00566374 -0.76496630 0.00000000 0.00000000 0.00000000 0.00798923 0.00726417 -0.12427140
25 1 1.77415492 1.77314846 7.04561362 1.35323296 0.65367090 0.08532155 0.75195385 0.00000000 0.00000000 0.00000000 -0.09977206 0.14983566 0.35644741
26 1 5.29358618 1.77375383 7.02025943 1.39531653 0.41797651 0.14848954 0.89624020 0.00000000 0.00000000 0.00000000 0.13917607 0.08796948 0.50249520
27 1 1.71766531 5.32751562 7.07655842 1.25780051 0.90318632 0.00031804 0.42924860 0.00000000 0.00000000 0.00000000 0.24761480 -0.07437243 -0.08168568
28 1 5.33790341 5.32436174 7.03562396 1.31040554 0.68601591 0.13242460 0.71543406 0.00000000 0.00000000 0.00000000 -0.12521338 0.01064808 0.46466271
29 1 1.73853699 1.80195250 3.54418156 1.28077154 -0.70201323 0.16634474 -0.69246434 0.00000000 0.00000000 0.00000000 0.14773310 -0.15584463 -0.15593716
30 1 5.35170326 1.78914469 3.54641448 1.33479695 -0.73999169 0.05819604 -0.67009366 0.00000000 0.00000000 0.00000000 -0.22952788 -0.17281222 -0.03830764
31 1 1.75087446 5.36007594 3.49431254 1.40010324 -0.49566301 -0.46903645 -0.73097400 0.00000000 0.00000000 0.00000000 0.17511656 -0.17458439 0.47976808
32 1 5.35610368 5.30847559 3.47361387 1.39460161 -0.75263713 -0.08578069 -0.65282389 0.00000000 0.00000000 0.00000000 -0.33455615 0.24870800 0.42516843
